 #
 
          80  atoms
           3  atom types
 
      0.00000000      17.40000000  xlo xhi
      0.00000000      10.00000000  ylo yhi
      0.00000000       3.40000000  zlo zhi
 
Masses
 
           1   10.81000000    # B 
           2   14.00700000    # N 
           3   118.0000000    #Sn
 
Atoms # atomic
 
         1    1        0.00000000       1.25573684       0.00000000
         2    2        0.72500000       0.00000000       0.00000000
         3    1        2.17500000       0.00000000       0.00000000
         4    2        2.90000000       1.25573684       0.00000000
         5    1        4.35000000       1.25573684       0.00000000
         6    2        5.07500000       0.00000000       0.00000000
         7    1        6.52500000       0.00000000       0.00000000
         8    2        7.25000000       1.25573684       0.00000000
         9    1        8.70000000       1.25573684       0.00000000
        10    2        9.42500000       0.00000000       0.00000000
        11    1       10.87500000       0.00000000       0.00000000
        12    2       11.60000000       1.25573684       0.00000000
        13    1       13.05000000       1.25573684       0.00000000
        14    2       13.77500000       0.00000000       0.00000000
        15    1       15.22500000       0.00000000       0.00000000
        16    2       15.95000000       1.25573684       0.00000000
        17    1        0.00000000       3.75573684       0.00000000
        18    2        0.72500000       2.50000000       0.00000000
        19    1        2.17500000       2.50000000       0.00000000
        20    2        2.90000000       3.75573684       0.00000000
        21    1        4.35000000       3.75573684       0.00000000
        22    2        5.07500000       2.50000000       0.00000000
        23    1        6.52500000       2.50000000       0.00000000
        24    2        7.25000000       3.75573684       0.00000000
        25    1        8.70000000       3.75573684       0.00000000
        26    2        9.42500000       2.50000000       0.00000000
        27    1       10.87500000       2.50000000       0.00000000
        28    2       11.60000000       3.75573684       0.00000000
        29    1       13.05000000       3.75573684       0.00000000
        30    2       13.77500000       2.50000000       0.00000000
        31    1       15.22500000       2.50000000       0.00000000
        32    2       15.95000000       3.75573684       0.00000000
        33    1        0.00000000       6.25573684       0.00000000
        34    2        0.72500000       5.00000000       0.00000000
        35    1        2.17500000       5.00000000       0.00000000
        36    2        2.90000000       6.25573684       0.00000000
        37    1        4.35000000       6.25573684       0.00000000
        38    2        5.07500000       5.00000000       0.00000000
        39    1        6.52500000       5.00000000       0.00000000
        40    2        7.25000000       6.25573684       0.00000000
        41    1        8.70000000       6.25573684       0.00000000
        42    2        9.42500000       5.00000000       0.00000000
        43    1       10.87500000       5.00000000       0.00000000
        44    2       11.60000000       6.25573684       0.00000000
        45    1       13.05000000       6.25573684       0.00000000
        46    2       13.77500000       5.00000000       0.00000000
        47    1       15.22500000       5.00000000       0.00000000
        48    2       15.95000000       6.25573684       0.00000000
        49    1        0.00000000       8.75573684       0.00000000
        50    2        0.72500000       7.50000000       0.00000000
        51    1        2.17500000       7.50000000       0.00000000
        52    2        2.90000000       8.75573684       0.00000000
        53    1        4.35000000       8.75573684       0.00000000
        54    2        5.07500000       7.50000000       0.00000000
        55    1        6.52500000       7.50000000       0.00000000
        56    2        7.25000000       8.75573684       0.00000000
        57    1        8.70000000       8.75573684       0.00000000
        58    2        9.42500000       7.50000000       0.00000000
        59    1       10.87500000       7.50000000       0.00000000
        60    2       11.60000000       8.75573684       0.00000000
        61    1       13.05000000       8.75573684       0.00000000
        62    2       13.77500000       7.50000000       0.00000000
        63    1       15.22500000       7.50000000       0.00000000
        64    2       15.95000000       8.75573684       0.00000000
         65    3        0.00000000       2.47683265       3.400000000
         66    3        1.43000000       0.00000000       4.26000000
         67    3        4.29000000       0.00000000       3.400000000
         68    3        5.72000000       2.47683265       4.26000000
         69    3        8.58000000       2.47683265       3.40000000
         70    3      10.01000000       0.00000000       4.26000000
         71    3       12.87000000       0.00000000       3.400000000
         72    3       14.30000000       2.47683265       4.26000000
         73    3        0.00000000       7.41683265       3.400000000
        74    3        1.43000000       4.94000000       4.26000000
        75    3        4.29000000       4.94000000       3.400000000
        76    3        5.72000000       7.41683265       4.26000000
        77    3        8.58000000       7.41683265       3.400000000
        78    3       10.01000000       4.94000000       4.26000000
        79    3       12.87000000       4.94000000       3.400000000
        80    3       14.30000000       7.41683265       4.26000000

